96
Lattice="12.505406830647296 0.0 0.0 0.0 10.210621920333747 0.0 0.0 0.0 28.10576980716" Properties=species:S:1:pos:R:3:move_mask:L:1:momenta:R:3:forces:R:3 adsorbate_info="_JSON {\"sites\": {}}" energy=-367.8516845703125 stress="0.000253471516771242 -9.927485222771537e-11 1.596877700649202e-05 -9.927485222771537e-11 0.0003607682010624558 -4.0471712786649405e-11 1.596877700649202e-05 -4.0471712786649405e-11 3.338340684422292e-05" free_energy=-367.8516845703125 pbc="T T F"
Cu       4.16846894       1.27632774      18.10576981  T       2.22403036       1.10169205      -0.14294336      -0.10362074      -0.00000001      -0.25142860
Cu       4.16846894       3.82898322      18.10576981  T      -0.85515520      -2.64101744      -0.21249627      -0.10362026      -0.00000056      -0.25142848
Cu       4.16846894       6.38163870      18.10576981  T       0.92737236       0.00726562       1.23946167      -0.10362049       0.00000059      -0.25142923
Cu       4.16846894       8.93429418      18.10576981  T      -1.77790276       1.17353090       0.61468885      -0.10362062       0.00000130      -0.25142884
Cu      10.42117236       1.27632774      18.10576981  T      -1.49984526       0.33131411       1.99408906      -0.10362005       0.00000000      -0.25142881
Cu      10.42117236       3.82898322      18.10576981  T      -1.83050675       0.91102208      -1.70547287      -0.10361987      -0.00000057      -0.25142872
Cu      10.42117236       6.38163870      18.10576981  T       0.10445738      -0.57537133      -0.17381920      -0.10362019       0.00000035      -0.25142878
Cu      10.42117236       8.93429418      18.10576981  T       0.01705285       0.50579555      -0.99025989      -0.10362009       0.00000119      -0.25142854
Cu       2.08423447       0.00000000      17.36888164  T      -2.22589196      -0.41573664       0.49412856       0.04526462      -0.00000013       0.00604437
Cu       2.08423447       2.55265548      17.36888164  T       1.15496720      -0.34337869      -0.43483422       0.04526426      -0.00000016       0.00604445
Cu       2.08423447       5.10531096      17.36888164  T      -0.19819952       0.56443315      -0.92261451       0.04526457       0.00000045       0.00604559
Cu       2.08423447       7.65796644      17.36888164  T      -1.29155895       0.49118952      -0.36703116       0.04526475      -0.00000143       0.00604567
Cu       8.33693789       0.00000000      17.36888164  T      -1.10945503      -1.00543059      -0.74810175       0.04526347       0.00000005       0.00604443
Cu       8.33693789       2.55265548      17.36888164  T       0.35965553       1.24299380      -0.18287072       0.04526329      -0.00000011       0.00604421
Cu       8.33693789       5.10531096      17.36888164  T      -1.27776083      -1.38863516      -1.09457143       0.04526323       0.00000045       0.00604539
Cu       8.33693789       7.65796644      17.36888164  T       0.08481654       0.20035807      -1.12059277       0.04526375      -0.00000148       0.00604554
Cu      -0.00000000       1.27632774      16.63199348  T      -2.10882899       2.09267194      -0.04460624       0.03742855       0.00000001       0.26424879
Cu      -0.00000000       3.82898322      16.63199348  T      -1.14794437       0.39640758      -0.61543505       0.03742801      -0.00000097       0.26424909
Cu      -0.00000000       6.38163870      16.63199348  T       0.95588862       1.34865932      -2.63476344       0.03742765       0.00000050       0.26424900
Cu      -0.00000000       8.93429418      16.63199348  T       1.20747997      -2.45956893      -1.41458797       0.03742789       0.00000137       0.26424897
Cu       6.25270342       1.27632774      16.63199348  T       0.38726464      -1.78058649       2.42875452       0.03742914       0.00000001       0.26424846
Cu       6.25270342       3.82898322      16.63199348  T      -0.21319106       0.47151457      -0.61776033       0.03742896      -0.00000081       0.26424870
Cu       6.25270342       6.38163870      16.63199348  T      -0.40838961       1.07471143      -1.51148707       0.03742844       0.00000026       0.26424879
Cu       6.25270342       8.93429418      16.63199348  T       0.54044134      -0.52828402      -0.39369423       0.03742831       0.00000137       0.26424867
Cu       4.16846894       0.00000000      15.89510531  T      -0.90038751      -0.28578859      -0.23773638       0.07753138      -0.00000042       0.11867703
Cu       4.16846894       2.55265548      15.89510531  T       0.39172882       1.11389528      -2.16327597       0.07753104      -0.00000022       0.11867692
Cu       4.16846894       5.10531096      15.89510531  T      -1.42985392      -1.40021605       1.81269261       0.07753106       0.00000039       0.11867701
Cu       4.16846894       7.65796644      15.89510531  T      -0.38206245       2.71132157       0.06161121       0.07753143      -0.00000165       0.11867725
Cu      10.42117236       0.00000000      15.89510531  T      -0.49262439      -1.45631923      -0.77718396       0.07753187      -0.00000037       0.11867701
Cu      10.42117236       2.55265548      15.89510531  T      -0.93775668      -2.59730701      -2.69084162       0.07753132       0.00000001       0.11867706
Cu      10.42117236       5.10531096      15.89510531  T      -1.00841790      -1.18270085       0.51509233       0.07753166       0.00000030       0.11867668
Cu      10.42117236       7.65796644      15.89510531  T      -1.01655884      -0.01352827       0.45316854       0.07753202      -0.00000212       0.11867689
Cu       2.08423447       1.27632774      15.15821715  T      -1.21629403      -1.58745214      -0.56980930      -0.03738685      -0.00000011      -0.03605538
Cu       2.08423447       3.82898322      15.15821715  T       1.26978690       0.08216993       0.87440957      -0.03738654      -0.00000091      -0.03605575
Cu       2.08423447       6.38163870      15.15821715  T      -0.48020162      -0.69354292      -0.01126563      -0.03738688       0.00000080      -0.03605632
Cu       2.08423447       8.93429418      15.15821715  T       1.34637042      -0.37573449       1.44133152      -0.03738704       0.00000208      -0.03605621
Cu       8.33693789       1.27632774      15.15821715  T      -0.20156482       1.02194508      -1.66551638      -0.03738870       0.00000011      -0.03605522
Cu       8.33693789       3.82898322      15.15821715  T      -0.14899471       0.47720572       0.43318937      -0.03738824      -0.00000113      -0.03605538
Cu       8.33693789       6.38163870      15.15821715  T      -1.82888465      -0.71623425      -1.72253934      -0.03738856       0.00000089      -0.03605608
Cu       8.33693789       8.93429418      15.15821715  T      -0.37621850       1.85351321       0.82617013      -0.03738864       0.00000234      -0.03605585
Cu       0.00000000       0.00000000      14.42132899  T      -0.62580128       0.65181542      -1.29623271      -0.00329579       0.00000004      -0.03810485
Cu       0.00000000       2.55265548      14.42132899  T      -0.14008558      -0.28130000      -0.09161926      -0.00329626      -0.00000017      -0.03810486
Cu       0.00000000       5.10531096      14.42132899  T       0.09438156      -2.87333745       1.63269022      -0.00329689       0.00000034      -0.03810467
Cu       0.00000000       7.65796644      14.42132899  T       1.23520292      -0.71237077       0.34659816      -0.00329604      -0.00000168      -0.03810409
Cu       6.25270342       0.00000000      14.42132899  T      -1.02592638       1.93447008      -0.78435641      -0.00329513       0.00000000      -0.03810456
Cu       6.25270342       2.55265548      14.42132899  T      -1.10519733       2.19139460       1.18971008      -0.00329545      -0.00000021      -0.03810459
Cu       6.25270342       5.10531096      14.42132899  T      -0.77323171       1.76787174       2.19383871      -0.00329583       0.00000046      -0.03810441
Cu       6.25270342       7.65796644      14.42132899  T      -0.24438933      -0.96365668      -1.84858979      -0.00329536      -0.00000205      -0.03810399
Cu       4.16846894       1.27632774      13.68444082  F       0.00000000       0.00000000       0.00000000       0.00329562      -0.00000008       0.03811034
Cu       4.16846894       3.82898322      13.68444082  F       0.00000000       0.00000000       0.00000000       0.00329593      -0.00000064       0.03811036
Cu       4.16846894       6.38163870      13.68444082  F       0.00000000       0.00000000       0.00000000       0.00329608       0.00000035       0.03811023
Cu       4.16846894       8.93429418      13.68444082  F       0.00000000       0.00000000       0.00000000       0.00329558       0.00000196       0.03811033
Cu      10.42117236       1.27632774      13.68444082  F       0.00000000       0.00000000       0.00000000       0.00329651       0.00000015       0.03811011
Cu      10.42117236       3.82898322      13.68444082  F       0.00000000       0.00000000       0.00000000       0.00329652      -0.00000073       0.03811012
Cu      10.42117236       6.38163870      13.68444082  F       0.00000000       0.00000000       0.00000000       0.00329659       0.00000046       0.03811029
Cu      10.42117236       8.93429418      13.68444082  F       0.00000000       0.00000000       0.00000000       0.00329656       0.00000208       0.03811017
Cu       2.08423447       0.00000000      12.94755266  F       0.00000000       0.00000000       0.00000000       0.03738660      -0.00000009       0.03605307
Cu       2.08423447       2.55265548      12.94755266  F       0.00000000       0.00000000       0.00000000       0.03738679      -0.00000035       0.03605288
Cu       2.08423447       5.10531096      12.94755266  F       0.00000000       0.00000000       0.00000000       0.03738653       0.00000029       0.03605291
Cu       2.08423447       7.65796644      12.94755266  F       0.00000000       0.00000000       0.00000000       0.03738672      -0.00000147       0.03605300
Cu       8.33693789       0.00000000      12.94755266  F       0.00000000       0.00000000       0.00000000       0.03738534      -0.00000040       0.03605306
Cu       8.33693789       2.55265548      12.94755266  F       0.00000000       0.00000000       0.00000000       0.03738554       0.00000007       0.03605302
Cu       8.33693789       5.10531096      12.94755266  F       0.00000000       0.00000000       0.00000000       0.03738555       0.00000032       0.03605299
Cu       8.33693789       7.65796644      12.94755266  F       0.00000000       0.00000000       0.00000000       0.03738508      -0.00000184       0.03605285
Cu      -0.00000000       1.27632774      12.21066449  F       0.00000000       0.00000000       0.00000000      -0.07752985      -0.00000007      -0.11867966
Cu      -0.00000000       3.82898322      12.21066449  F       0.00000000       0.00000000       0.00000000      -0.07752977      -0.00000073      -0.11868013
Cu      -0.00000000       6.38163870      12.21066449  F       0.00000000       0.00000000       0.00000000      -0.07753003       0.00000058      -0.11868051
Cu      -0.00000000       8.93429418      12.21066449  F       0.00000000       0.00000000       0.00000000      -0.07753012       0.00000208      -0.11868059
Cu       6.25270342       1.27632774      12.21066449  F       0.00000000       0.00000000       0.00000000      -0.07752948      -0.00000004      -0.11868000
Cu       6.25270342       3.82898322      12.21066449  F       0.00000000       0.00000000       0.00000000      -0.07752892      -0.00000102      -0.11868019
Cu       6.25270342       6.38163870      12.21066449  F       0.00000000       0.00000000       0.00000000      -0.07752930       0.00000083      -0.11868064
Cu       6.25270342       8.93429418      12.21066449  F       0.00000000       0.00000000       0.00000000      -0.07752914       0.00000216      -0.11868066
Cu       4.16846894       0.00000000      11.47377633  F       0.00000000       0.00000000       0.00000000      -0.03742827      -0.00000016      -0.26425132
Cu       4.16846894       2.55265548      11.47377633  F       0.00000000       0.00000000       0.00000000      -0.03742877      -0.00000016      -0.26425165
Cu       4.16846894       5.10531096      11.47377633  F       0.00000000       0.00000000       0.00000000      -0.03742874       0.00000040      -0.26425177
Cu       4.16846894       7.65796644      11.47377633  F       0.00000000       0.00000000       0.00000000      -0.03742844      -0.00000126      -0.26425189
Cu      10.42117236       0.00000000      11.47377633  F       0.00000000       0.00000000       0.00000000      -0.03742781      -0.00000027      -0.26425147
Cu      10.42117236       2.55265548      11.47377633  F       0.00000000       0.00000000       0.00000000      -0.03742826      -0.00000009      -0.26425195
Cu      10.42117236       5.10531096      11.47377633  F       0.00000000       0.00000000       0.00000000      -0.03742825       0.00000035      -0.26425195
Cu      10.42117236       7.65796644      11.47377633  F       0.00000000       0.00000000       0.00000000      -0.03742775      -0.00000147      -0.26425213
Cu       2.08423447       1.27632774      10.73688816  F       0.00000000       0.00000000       0.00000000      -0.04526401      -0.00000001      -0.00604186
Cu       2.08423447       3.82898322      10.73688816  F       0.00000000       0.00000000       0.00000000      -0.04526402      -0.00000047      -0.00604178
Cu       2.08423447       6.38163870      10.73688816  F       0.00000000       0.00000000       0.00000000      -0.04526406      -0.00000003      -0.00604159
Cu       2.08423447       8.93429418      10.73688816  F       0.00000000       0.00000000       0.00000000      -0.04526405       0.00000111      -0.00604192
Cu       8.33693789       1.27632774      10.73688816  F       0.00000000       0.00000000       0.00000000      -0.04526465      -0.00000001      -0.00604164
Cu       8.33693789       3.82898322      10.73688816  F       0.00000000       0.00000000       0.00000000      -0.04526498      -0.00000076      -0.00604172
Cu       8.33693789       6.38163870      10.73688816  F       0.00000000       0.00000000       0.00000000      -0.04526502       0.00000034      -0.00604149
Cu       8.33693789       8.93429418      10.73688816  F       0.00000000       0.00000000       0.00000000      -0.04526527       0.00000148      -0.00604203
Cu       0.00000000       0.00000000      10.00000000  F       0.00000000       0.00000000       0.00000000       0.10362004      -0.00000009       0.25142908
Cu       0.00000000       2.55265548      10.00000000  F       0.00000000       0.00000000       0.00000000       0.10361986      -0.00000004       0.25142872
Cu       0.00000000       5.10531096      10.00000000  F       0.00000000       0.00000000       0.00000000       0.10362010       0.00000048       0.25142863
Cu       0.00000000       7.65796644      10.00000000  F       0.00000000       0.00000000       0.00000000       0.10361995      -0.00000094       0.25142851
Cu       6.25270342       0.00000000      10.00000000  F       0.00000000       0.00000000       0.00000000       0.10362045      -0.00000038       0.25142932
Cu       6.25270342       2.55265548      10.00000000  F       0.00000000       0.00000000       0.00000000       0.10362039       0.00000021       0.25142887
Cu       6.25270342       5.10531096      10.00000000  F       0.00000000       0.00000000       0.00000000       0.10362019       0.00000060       0.25142890
Cu       6.25270342       7.65796644      10.00000000  F       0.00000000       0.00000000       0.00000000       0.10362047      -0.00000110       0.25142872
96
Lattice="12.505406830647296 0.0 0.0 0.0 10.210621920333747 0.0 0.0 0.0 28.10576980716" Properties=species:S:1:pos:R:3:move_mask:L:1:momenta:R:3:forces:R:3 adsorbate_info="_JSON {\"sites\": {}}" energy=-367.8470153808594 stress="0.00025298589025624096 1.7176740030322435e-08 1.580422576807905e-05 1.7176740030322435e-08 0.00035985003341920674 2.1838358676973257e-08 1.580422576807905e-05 2.1838358676973257e-08 3.22552295983769e-05" free_energy=-367.8470153808594 pbc="T T F"
Cu       4.17191945       1.27803504      18.10552923  T       2.24583350       1.10850716      -0.17786340      -0.11727177      -0.01074640      -0.25511950
Cu       4.16716528       3.82489168      18.10542256  T      -0.84821216      -2.65603349      -0.22918863      -0.09941254       0.01676212      -0.24722189
Cu       4.16992030       6.38165839      18.10766017  T       0.94273857       0.02333839       1.19666559      -0.10991193       0.00090583      -0.26177979
Cu       4.16569331       8.93610671      18.10666697  T      -1.79434885       1.18950798       0.54732362      -0.09727617      -0.00325542      -0.25430799
Cu      10.41889220       1.27683980      18.10886100  T      -1.45653416       0.32976721       2.00380527      -0.10425688      -0.00081491      -0.26718518
Cu      10.41830967       3.83041271      18.10308542  T      -1.87140399       0.94511235      -1.77212749      -0.09665266      -0.01149543      -0.24546447
Cu      10.42136043       6.38072572      18.10544750  T       0.17101225      -0.61330205      -0.24071448      -0.10386932       0.00429199      -0.25537622
Cu      10.42118278       8.93503547      18.10423692  T       0.01022510       0.44651575      -1.02097401      -0.10147054      -0.00171705      -0.24771369
Cu       2.08079323      -0.00067102      17.36965607  T      -2.21220028      -0.45743801       0.50466193       0.05426340       0.01260923       0.00613079
Cu       2.08601660       2.55211003      17.36818266  T       1.11628785      -0.35141145      -0.47374439       0.03453081      -0.00351840       0.00229531
Cu       2.08392492       5.10617906      17.36746519  T      -0.18651330       0.59404434      -0.90510701       0.04354886      -0.00308191       0.01686849
Cu       2.08221982       7.65873360      17.36831791  T      -1.31993090       0.48246239      -0.34619706       0.06152266      -0.00933323       0.01465017
Cu       8.33520142      -0.00155831      17.36773909  T      -1.12675129      -1.02555027      -0.72902458       0.05716728       0.01456316       0.01169846
Cu       8.33746744       2.55452923      17.36862781  T       0.32966877       1.21358500      -0.15334827       0.03968045      -0.01712674       0.00360887
Cu       8.33497880       5.10320099      17.36718227  T      -1.24995107      -1.34845804      -1.09174026       0.04661510       0.02074300       0.01185060
Cu       8.33707097       7.65826381      17.36714253  T       0.07849558       0.20125222      -1.11801446       0.04520351      -0.01022361       0.00927041
Cu      -0.00325533       1.27953967      16.63194192  T      -2.09283773       2.06218825      -0.03222392       0.04747613      -0.02230440       0.26565528
Cu      -0.00179404       3.82962201      16.63107369  T      -1.16356575       0.41202546      -0.58917946       0.04451762      -0.00383965       0.27215907
Cu       0.00146810       6.38373731      16.62788780  T       0.93766059       1.37346614      -2.65199839       0.01930199      -0.01799820       0.27994487
Cu       0.00187617       8.93045897      16.62982239  T       1.22087236      -2.49487549      -1.38022670       0.01883373       0.02968553       0.26580381
Cu       6.25333216       1.27353302      16.63575535  T       0.43161713      -1.82526976       2.44367612       0.03517950       0.01588527       0.24504051
Cu       6.25238222       3.82972502      16.63106749  T      -0.17335787       0.47969453      -0.56490247       0.03336635      -0.00671685       0.27507094
Cu       6.25205899       6.38329942      16.62966858  T      -0.44370236       1.08549993      -1.49777785       0.03210686      -0.00256012       0.27497661
Cu       6.25356363       8.93349492      16.63136475  T       0.55523522      -0.52051866      -0.41505594       0.02323406       0.00299102       0.26141930
Cu       4.16710156      -0.00040166      15.89476586  T      -0.88412747      -0.25161541      -0.20934408       0.08497243       0.01506517       0.12680265
Cu       4.16909649       2.55433919      15.89177919  T       0.42297598       1.07072814      -2.14730980       0.07497198      -0.02350941       0.13544275
Cu       4.16625609       5.10315320      15.89786523  T      -1.42495577      -1.39289163       1.77110216       0.08927870       0.02607197       0.11012947
Cu       4.16792619       7.66218296      15.89523125  T      -0.31268267       2.73014768       0.10917856       0.08190651      -0.03312944       0.12261236
Cu      10.42045186      -0.00226985      15.89397415  T      -0.43877741      -1.46797946      -0.70048507       0.08379767       0.01057756       0.12944497
Cu      10.41972262       2.54863079      15.89093988  T      -0.96587035      -2.60096078      -2.69376264       0.07926753       0.01672515       0.14229804
Cu      10.41962169       5.10350199      15.89589684  T      -1.00936181      -1.16271683       0.50336270       0.08064540       0.01306292       0.10968968
Cu      10.41959828       7.65794952      15.89579157  T      -1.00746440      -0.02276272       0.45643931       0.08053543      -0.00915115       0.10813633
Cu       2.08236455       1.27386206      15.15733707  T      -1.21480833      -1.59742171      -0.58810097      -0.03149908       0.01350940      -0.02814001
Cu       2.08619819       3.82911867      15.15955185  T       1.28456273       0.06639851       0.83434156      -0.05226862      -0.01077211      -0.04542248
Cu       2.08353263       6.38059205      15.15820600  T      -0.43354346      -0.64786991      -0.01265621      -0.02419919       0.00561089      -0.04154316
Cu       2.08633386       8.93372999      15.16043789  T       1.33982490      -0.37251572       1.43681985      -0.05314729       0.00210920      -0.05584300
Cu       8.33662212       1.27790747      15.15566446  T      -0.18969196       1.01790468      -1.65371748      -0.04757383      -0.00522787      -0.02166191
Cu       8.33668454       3.82970972      15.15888883  T      -0.18707938       0.47814490       0.46696855      -0.03887779      -0.00491713      -0.04720181
Cu       8.33413234       6.38047657      15.15556475  T      -1.81773243      -0.78894581      -1.73837744      -0.01760719       0.01395507      -0.02328762
Cu       8.33634062       8.93717188      15.15951337  T      -0.38749409       1.86714947       0.85746876      -0.04347541      -0.01725653      -0.05308799
Cu      -0.00097553       0.00100002      14.41935671  T      -0.63825284       0.66968337      -1.25919557       0.00237749      -0.01179506      -0.02338232
Cu      -0.00021463       2.55223323      14.42119331  T      -0.14928561      -0.26369009      -0.09353370       0.00293338      -0.00002902      -0.04047014
Cu       0.00012851       5.10087537      14.42388797  T       0.09803455      -2.86370744       1.64954957      -0.00567743       0.02165246      -0.05800614
Cu       0.00193400       7.65688017      14.42184149  T       1.26487950      -0.68670414       0.33776340      -0.01575953       0.00434763      -0.05172045
Cu       6.25114068       0.00298452      14.42010770  T      -0.99378875       1.91824289      -0.78153795       0.00302202      -0.01228371      -0.02758992
Cu       6.25099033       2.55604965      14.42320151  T      -1.11114614       2.18270461       1.22904572       0.00922678      -0.01499633      -0.04746006
Cu       6.25148557       5.10804476      14.42471363  T      -0.80589567       1.75962671       2.18079988      -0.00591765      -0.01717441      -0.06129118
Cu       6.25233254       7.65650927      14.41843990  T      -0.22154171      -0.91363615      -1.86966322      -0.00304656       0.02367698      -0.02544955
Cu       4.16846894       1.27632774      13.68444082  F       0.00000000       0.00000000       0.00000000      -0.00114383       0.00150582       0.03479177
Cu       4.16846894       3.82898322      13.68444082  F       0.00000000       0.00000000       0.00000000       0.00305509       0.00764037       0.03202250
Cu       4.16846894       6.38163870      13.68444082  F       0.00000000       0.00000000       0.00000000      -0.00212520      -0.00134985       0.04560710
Cu       4.16846894       8.93429418      13.68444082  F       0.00000000       0.00000000       0.00000000       0.00320990       0.00151560       0.03379243
Cu      10.42117236       1.27632774      13.68444082  F       0.00000000       0.00000000       0.00000000       0.00193117      -0.00415042       0.02789554
Cu      10.42117236       3.82898322      13.68444082  F       0.00000000       0.00000000       0.00000000       0.00063530       0.00119388       0.03468220
Cu      10.42117236       6.38163870      13.68444082  F       0.00000000       0.00000000       0.00000000       0.00884615      -0.00208653       0.04427858
Cu      10.42117236       8.93429418      13.68444082  F       0.00000000       0.00000000       0.00000000       0.00388842      -0.00594184       0.03758421
Cu       2.08423447       0.00000000      12.94755266  F       0.00000000       0.00000000       0.00000000       0.03774121      -0.00354069       0.03603220
Cu       2.08423447       2.55265548      12.94755266  F       0.00000000       0.00000000       0.00000000       0.03709596       0.00095141       0.03876870
Cu       2.08423447       5.10531096      12.94755266  F       0.00000000       0.00000000       0.00000000       0.03522851      -0.00085295       0.03772311
Cu       2.08423447       7.65796644      12.94755266  F       0.00000000       0.00000000       0.00000000       0.03915399       0.00108128       0.03734180
Cu       8.33693789       0.00000000      12.94755266  F       0.00000000       0.00000000       0.00000000       0.03646801      -0.00196726       0.03397232
Cu       8.33693789       2.55265548      12.94755266  F       0.00000000       0.00000000       0.00000000       0.03389031       0.00303552       0.03544132
Cu       8.33693789       5.10531096      12.94755266  F       0.00000000       0.00000000       0.00000000       0.03358930      -0.00297972       0.03450937
Cu       8.33693789       7.65796644      12.94755266  F       0.00000000       0.00000000       0.00000000       0.04017515       0.00391544       0.03596776
Cu      -0.00000000       1.27632774      12.21066449  F       0.00000000       0.00000000       0.00000000      -0.07715265       0.00142484      -0.12257355
Cu      -0.00000000       3.82898322      12.21066449  F       0.00000000       0.00000000       0.00000000      -0.07758829       0.00052928      -0.11899915
Cu      -0.00000000       6.38163870      12.21066449  F       0.00000000       0.00000000       0.00000000      -0.07768583      -0.00357283      -0.11214799
Cu      -0.00000000       8.93429418      12.21066449  F       0.00000000       0.00000000       0.00000000      -0.07772374      -0.00232452      -0.11903581
Cu       6.25270342       1.27632774      12.21066449  F       0.00000000       0.00000000       0.00000000      -0.07710469       0.00484141      -0.11721534
Cu       6.25270342       3.82898322      12.21066449  F       0.00000000       0.00000000       0.00000000      -0.07732854       0.00345298      -0.11295852
Cu       6.25270342       6.38163870      12.21066449  F       0.00000000       0.00000000       0.00000000      -0.07744762      -0.00440533      -0.12113775
Cu       6.25270342       8.93429418      12.21066449  F       0.00000000       0.00000000       0.00000000      -0.07727881       0.00224620      -0.12055776
Cu       4.16846894       0.00000000      11.47377633  F       0.00000000       0.00000000       0.00000000      -0.03744454       0.00001422      -0.26431867
Cu       4.16846894       2.55265548      11.47377633  F       0.00000000       0.00000000       0.00000000      -0.03748180       0.00022969      -0.26442230
Cu       4.16846894       5.10531096      11.47377633  F       0.00000000       0.00000000       0.00000000      -0.03748363      -0.00004170      -0.26428244
Cu       4.16846894       7.65796644      11.47377633  F       0.00000000       0.00000000       0.00000000      -0.03742226      -0.00000080      -0.26406726
Cu      10.42117236       0.00000000      11.47377633  F       0.00000000       0.00000000       0.00000000      -0.03735096      -0.00015692      -0.26437619
Cu      10.42117236       2.55265548      11.47377633  F       0.00000000       0.00000000       0.00000000      -0.03746374       0.00005414      -0.26470667
Cu      10.42117236       5.10531096      11.47377633  F       0.00000000       0.00000000       0.00000000      -0.03738617       0.00002222      -0.26423538
Cu      10.42117236       7.65796644      11.47377633  F       0.00000000       0.00000000       0.00000000      -0.03736381      -0.00011770      -0.26401564
Cu       2.08423447       1.27632774      10.73688816  F       0.00000000       0.00000000       0.00000000      -0.04512627       0.00001286      -0.00612462
Cu       2.08423447       3.82898322      10.73688816  F       0.00000000       0.00000000       0.00000000      -0.04536083       0.00001401      -0.00590584
Cu       2.08423447       6.38163870      10.73688816  F       0.00000000       0.00000000       0.00000000      -0.04537246      -0.00002035      -0.00589188
Cu       2.08423447       8.93429418      10.73688816  F       0.00000000       0.00000000       0.00000000      -0.04515165      -0.00000027      -0.00595549
Cu       8.33693789       1.27632774      10.73688816  F       0.00000000       0.00000000       0.00000000      -0.04522627       0.00001657      -0.00609669
Cu       8.33693789       3.82898322      10.73688816  F       0.00000000       0.00000000       0.00000000      -0.04548908       0.00004847      -0.00574245