96
Lattice="12.505406830647296 0.0 0.0 0.0 10.210621920333747 0.0 0.0 0.0 28.10576980716" Properties=species:S:1:pos:R:3:move_mask:L:1:momenta:R:3:forces:R:3 adsorbate_info="_JSON {\"sites\": {}}" energy=-367.8516845703125 stress="0.0002534714585635811 -1.0130518646178643e-10 1.5968647858244367e-05 -1.0130518646178643e-10 0.0003607682592701167 -3.78712373960699e-11 1.5968647858244367e-05 -3.78712373960699e-11 3.338335591251962e-05" free_energy=-367.8516845703125 pbc="T T F"
Cu       4.16846894       1.27632774      18.10576981  T      -2.01197422       0.08540420       0.41375565      -0.10362074      -0.00000001      -0.25142860
Cu       4.16846894       3.82898322      18.10576981  T       0.46878534       0.56500898       0.37171280      -0.10362026      -0.00000056      -0.25142848
Cu       4.16846894       6.38163870      18.10576981  T      -0.63409108      -3.41714703      -3.46569705      -0.10362049       0.00000059      -0.25142923
Cu       4.16846894       8.93429418      18.10576981  T      -0.32717013      -1.99153523       2.10005154      -0.10362062       0.00000130      -0.25142884
Cu      10.42117236       1.27632774      18.10576981  T      -1.57462965       3.23813590       0.55701290      -0.10362005       0.00000000      -0.25142881
Cu      10.42117236       3.82898322      18.10576981  T      -0.62191856      -2.38024766      -0.01066332      -0.10361987      -0.00000057      -0.25142872
Cu      10.42117236       6.38163870      18.10576981  T       1.65101269       0.57915173       0.02506751      -0.10362019       0.00000035      -0.25142878
Cu      10.42117236       8.93429418      18.10576981  T      -1.60082974      -2.26442146       0.56107990      -0.10362009       0.00000119      -0.25142854
Cu       2.08423447       0.00000000      17.36888164  T       0.24642392       1.10626206      -0.62913273       0.04526462      -0.00000013       0.00604436
Cu       2.08423447       2.55265548      17.36888164  T       2.01528849       0.34141724      -0.24522929       0.04526426      -0.00000016       0.00604445
Cu       2.08423447       5.10531096      17.36888164  T       0.68658970      -0.44972613       1.08420587       0.04526457       0.00000045       0.00604559
Cu       2.08423447       7.65796644      17.36888164  T      -0.66108169      -0.00032941       3.17784882       0.04526475      -0.00000143       0.00604567
Cu       8.33693789       0.00000000      17.36888164  T      -0.58699345       1.76052659       1.97486189       0.04526347       0.00000005       0.00604443
Cu       8.33693789       2.55265548      17.36888164  T      -0.10519549      -1.12861378      -0.15134884       0.04526329      -0.00000011       0.00604421
Cu       8.33693789       5.10531096      17.36888164  T      -1.45594375      -0.38247973       1.74509814       0.04526323       0.00000045       0.00604539
Cu       8.33693789       7.65796644      17.36888164  T      -0.66258455       1.75118669       1.50530411       0.04526375      -0.00000148       0.00604554
Cu      -0.00000000       1.27632774      16.63199348  T      -0.62260214      -0.93522222      -2.11197758       0.03742855       0.00000001       0.26424879
Cu      -0.00000000       3.82898322      16.63199348  T       1.16516906      -0.11064993       0.95478181       0.03742801      -0.00000097       0.26424909
Cu      -0.00000000       6.38163870      16.63199348  T      -0.41367987       0.99156120      -0.18814342       0.03742765       0.00000050       0.26424900
Cu      -0.00000000       8.93429418      16.63199348  T      -2.69957103      -1.16627265       1.07205862       0.03742789       0.00000137       0.26424897
Cu       6.25270342       1.27632774      16.63199348  T      -1.04005655      -0.27691379      -2.05679784       0.03742913       0.00000001       0.26424846
Cu       6.25270342       3.82898322      16.63199348  T      -0.80232291      -0.98110350      -2.47267609       0.03742896      -0.00000081       0.26424870
Cu       6.25270342       6.38163870      16.63199348  T       2.09966310      -1.76957337      -2.14216566       0.03742847       0.00000026       0.26424879
Cu       6.25270342       8.93429418      16.63199348  T      -0.43406650       0.17085704      -1.79835633       0.03742831       0.00000137       0.26424867
Cu       4.16846894       0.00000000      15.89510531  T      -0.24776622      -3.02069609       0.16245444       0.07753138      -0.00000041       0.11867703
Cu       4.16846894       2.55265548      15.89510531  T      -1.21727034       0.31971611       0.12486197       0.07753104      -0.00000022       0.11867692
Cu       4.16846894       5.10531096      15.89510531  T       0.65143907       2.20290850      -0.71710096       0.07753106       0.00000039       0.11867701
Cu       4.16846894       7.65796644      15.89510531  T      -1.22711904       2.26873114       0.16772143       0.07753143      -0.00000165       0.11867725
Cu      10.42117236       0.00000000      15.89510531  T       0.02713186      -0.48279578       2.03998930       0.07753188      -0.00000036       0.11867701
Cu      10.42117236       2.55265548      15.89510531  T       1.42572698      -1.92001594       0.01719346       0.07753132       0.00000001       0.11867706
Cu      10.42117236       5.10531096      15.89510531  T       1.92354996       0.39757985      -0.92061246       0.07753161       0.00000032       0.11867666
Cu      10.42117236       7.65796644      15.89510531  T      -0.48018196       1.23171868       2.15550964       0.07753200      -0.00000212       0.11867689
Cu       2.08423447       1.27632774      15.15821715  T       1.53372290       0.04315960      -0.70052431      -0.03738685      -0.00000011      -0.03605536
Cu       2.08423447       3.82898322      15.15821715  T      -2.50841277       1.10066528       1.62010824      -0.03738654      -0.00000090      -0.03605575
Cu       2.08423447       6.38163870      15.15821715  T      -0.11704511      -1.76494124       0.76547336      -0.03738688       0.00000080      -0.03605632
Cu       2.08423447       8.93429418      15.15821715  T      -1.61570370       0.70993263      -1.30891608      -0.03738704       0.00000207      -0.03605621
Cu       8.33693789       1.27632774      15.15821715  T       2.16619487      -1.70626437       0.90930217      -0.03738870       0.00000011      -0.03605522
Cu       8.33693789       3.82898322      15.15821715  T      -0.09255306      -1.53260574      -1.46449489      -0.03738824      -0.00000113      -0.03605538
Cu       8.33693789       6.38163870      15.15821715  T      -0.98567655      -1.06091940       0.88568199      -0.03738852       0.00000086      -0.03605604
Cu       8.33693789       8.93429418      15.15821715  T      -0.25789985      -0.49243315       1.01460973      -0.03738864       0.00000235      -0.03605585
Cu       0.00000000       0.00000000      14.42132899  T       1.14181045      -2.13623998       0.08829773      -0.00329580       0.00000003      -0.03810486
Cu       0.00000000       2.55265548      14.42132899  T      -1.27318267      -0.92757879       0.54800891      -0.00329626      -0.00000017      -0.03810486
Cu       0.00000000       5.10531096      14.42132899  T      -0.00230271      -0.08347778       1.30883430      -0.00329689       0.00000034      -0.03810468
Cu       0.00000000       7.65796644      14.42132899  T       1.40144531      -0.38115304       0.29743654      -0.00329605      -0.00000170      -0.03810409
Cu       6.25270342       0.00000000      14.42132899  T       0.39293628       0.82603583      -0.32883801      -0.00329514       0.00000001      -0.03810457
Cu       6.25270342       2.55265548      14.42132899  T       0.43486573       1.11953420       1.64660431      -0.00329544      -0.00000021      -0.03810458
Cu       6.25270342       5.10531096      14.42132899  T       0.00547717      -2.06475722      -1.08958303      -0.00329583       0.00000045      -0.03810441
Cu       6.25270342       7.65796644      14.42132899  T      -2.10858286       2.41228855      -0.33558006      -0.00329536      -0.00000205      -0.03810399
Cu       4.16846894       1.27632774      13.68444082  F       0.00000000       0.00000000       0.00000000       0.00329561      -0.00000007       0.03811033
Cu       4.16846894       3.82898322      13.68444082  F       0.00000000       0.00000000       0.00000000       0.00329591      -0.00000065       0.03811035
Cu       4.16846894       6.38163870      13.68444082  F       0.00000000       0.00000000       0.00000000       0.00329608       0.00000035       0.03811023
Cu       4.16846894       8.93429418      13.68444082  F       0.00000000       0.00000000       0.00000000       0.00329557       0.00000197       0.03811033
Cu      10.42117236       1.27632774      13.68444082  F       0.00000000       0.00000000       0.00000000       0.00329651       0.00000016       0.03811012
Cu      10.42117236       3.82898322      13.68444082  F       0.00000000       0.00000000       0.00000000       0.00329651      -0.00000073       0.03811012
Cu      10.42117236       6.38163870      13.68444082  F       0.00000000       0.00000000       0.00000000       0.00329658       0.00000046       0.03811031
Cu      10.42117236       8.93429418      13.68444082  F       0.00000000       0.00000000       0.00000000       0.00329656       0.00000208       0.03811017
Cu       2.08423447       0.00000000      12.94755266  F       0.00000000       0.00000000       0.00000000       0.03738660      -0.00000010       0.03605307
Cu       2.08423447       2.55265548      12.94755266  F       0.00000000       0.00000000       0.00000000       0.03738683      -0.00000035       0.03605288
Cu       2.08423447       5.10531096      12.94755266  F       0.00000000       0.00000000       0.00000000       0.03738653       0.00000029       0.03605291
Cu       2.08423447       7.65796644      12.94755266  F       0.00000000       0.00000000       0.00000000       0.03738672      -0.00000145       0.03605300
Cu       8.33693789       0.00000000      12.94755266  F       0.00000000       0.00000000       0.00000000       0.03738534      -0.00000040       0.03605306
Cu       8.33693789       2.55265548      12.94755266  F       0.00000000       0.00000000       0.00000000       0.03738554       0.00000008       0.03605302
Cu       8.33693789       5.10531096      12.94755266  F       0.00000000       0.00000000       0.00000000       0.03738555       0.00000031       0.03605299
Cu       8.33693789       7.65796644      12.94755266  F       0.00000000       0.00000000       0.00000000       0.03738508      -0.00000185       0.03605287
Cu      -0.00000000       1.27632774      12.21066449  F       0.00000000       0.00000000       0.00000000      -0.07752985      -0.00000007      -0.11867966
Cu      -0.00000000       3.82898322      12.21066449  F       0.00000000       0.00000000       0.00000000      -0.07752977      -0.00000073      -0.11868013
Cu      -0.00000000       6.38163870      12.21066449  F       0.00000000       0.00000000       0.00000000      -0.07753002       0.00000058      -0.11868051
Cu      -0.00000000       8.93429418      12.21066449  F       0.00000000       0.00000000       0.00000000      -0.07753012       0.00000208      -0.11868059
Cu       6.25270342       1.27632774      12.21066449  F       0.00000000       0.00000000       0.00000000      -0.07752947      -0.00000004      -0.11868000
Cu       6.25270342       3.82898322      12.21066449  F       0.00000000       0.00000000       0.00000000      -0.07752892      -0.00000103      -0.11868019
Cu       6.25270342       6.38163870      12.21066449  F       0.00000000       0.00000000       0.00000000      -0.07752930       0.00000083      -0.11868064
Cu       6.25270342       8.93429418      12.21066449  F       0.00000000       0.00000000       0.00000000      -0.07752915       0.00000216      -0.11868066
Cu       4.16846894       0.00000000      11.47377633  F       0.00000000       0.00000000       0.00000000      -0.03742827      -0.00000015      -0.26425132
Cu       4.16846894       2.55265548      11.47377633  F       0.00000000       0.00000000       0.00000000      -0.03742876      -0.00000016      -0.26425165
Cu       4.16846894       5.10531096      11.47377633  F       0.00000000       0.00000000       0.00000000      -0.03742874       0.00000040      -0.26425177
Cu       4.16846894       7.65796644      11.47377633  F       0.00000000       0.00000000       0.00000000      -0.03742845      -0.00000126      -0.26425186
Cu      10.42117236       0.00000000      11.47377633  F       0.00000000       0.00000000       0.00000000      -0.03742779      -0.00000027      -0.26425147
Cu      10.42117236       2.55265548      11.47377633  F       0.00000000       0.00000000       0.00000000      -0.03742826      -0.00000009      -0.26425195
Cu      10.42117236       5.10531096      11.47377633  F       0.00000000       0.00000000       0.00000000      -0.03742826       0.00000036      -0.26425195
Cu      10.42117236       7.65796644      11.47377633  F       0.00000000       0.00000000       0.00000000      -0.03742775      -0.00000147      -0.26425213
Cu       2.08423447       1.27632774      10.73688816  F       0.00000000       0.00000000       0.00000000      -0.04526401      -0.00000001      -0.00604187
Cu       2.08423447       3.82898322      10.73688816  F       0.00000000       0.00000000       0.00000000      -0.04526402      -0.00000047      -0.00604177
Cu       2.08423447       6.38163870      10.73688816  F       0.00000000       0.00000000       0.00000000      -0.04526406      -0.00000004      -0.00604159
Cu       2.08423447       8.93429418      10.73688816  F       0.00000000       0.00000000       0.00000000      -0.04526405       0.00000112      -0.00604192
Cu       8.33693789       1.27632774      10.73688816  F       0.00000000       0.00000000       0.00000000      -0.04526465      -0.00000001      -0.00604164
Cu       8.33693789       3.82898322      10.73688816  F       0.00000000       0.00000000       0.00000000      -0.04526498      -0.00000076      -0.00604172
Cu       8.33693789       6.38163870      10.73688816  F       0.00000000       0.00000000       0.00000000      -0.04526502       0.00000034      -0.00604149
Cu       8.33693789       8.93429418      10.73688816  F       0.00000000       0.00000000       0.00000000      -0.04526527       0.00000148      -0.00604203
Cu       0.00000000       0.00000000      10.00000000  F       0.00000000       0.00000000       0.00000000       0.10362004      -0.00000009       0.25142908
Cu       0.00000000       2.55265548      10.00000000  F       0.00000000       0.00000000       0.00000000       0.10361986      -0.00000004       0.25142875
Cu       0.00000000       5.10531096      10.00000000  F       0.00000000       0.00000000       0.00000000       0.10362010       0.00000047       0.25142863
Cu       0.00000000       7.65796644      10.00000000  F       0.00000000       0.00000000       0.00000000       0.10361995      -0.00000094       0.25142851
Cu       6.25270342       0.00000000      10.00000000  F       0.00000000       0.00000000       0.00000000       0.10362045      -0.00000038       0.25142932
Cu       6.25270342       2.55265548      10.00000000  F       0.00000000       0.00000000       0.00000000       0.10362038       0.00000021       0.25142890
Cu       6.25270342       5.10531096      10.00000000  F       0.00000000       0.00000000       0.00000000       0.10362019       0.00000060       0.25142890
Cu       6.25270342       7.65796644      10.00000000  F       0.00000000       0.00000000       0.00000000       0.10362047      -0.00000110       0.25142872
96
Lattice="12.505406830647296 0.0 0.0 0.0 10.210621920333747 0.0 0.0 0.0 28.10576980716" Properties=species:S:1:pos:R:3:move_mask:L:1:momenta:R:3:forces:R:3 adsorbate_info="_JSON {\"sites\": {}}" energy=-367.84747314453125 stress="0.00025360629661008716 -1.7119459982950502e-07 1.5563327906420454e-05 -1.7119459982950502e-07 0.00036048455513082445 -2.9363593512243824e-07 1.5563327906420454e-05 -2.9363593512243824e-07 3.3766747947083786e-05" free_energy=-367.84747314453125 pbc="T T F"
Cu       4.16535023       1.27645369      18.10640439  T      -2.04161167       0.08575506       0.41995495      -0.09137848      -0.00643794      -0.25547582
Cu       4.16919858       3.82988871      18.10635679  T       0.46503349       0.59755964       0.36278061      -0.10019913      -0.00916822      -0.25498536
Cu       4.16747222       6.37638648      18.10042271  T      -0.65137767      -3.40251428      -3.46855209      -0.09445461       0.02220019      -0.23491783
Cu       4.16797752       8.93122161      18.10904625  T      -0.31567517      -1.98858859       2.09966772      -0.10284474       0.00702179      -0.25848284
Cu      10.41874437       1.28133690      18.10662043  T      -1.58376597       3.22869017       0.52461709      -0.09447546      -0.02956519      -0.24792388
Cu      10.42020181       3.82529666      18.10575783  T      -0.66741699      -2.39795192      -0.02395585      -0.10283478       0.02490055      -0.25702477
Cu      10.42368995       6.38258457      18.10576379  T       1.58921486       0.62902245      -0.02592282      -0.11439887      -0.01679963      -0.25130612
Cu      10.41865985       8.93080587      18.10658338  T      -1.64070479      -2.24860084       0.50670936      -0.10203809       0.02457244      -0.23991667
Cu       2.08461145       0.00171826      17.36792617  T       0.26814813       1.10702359      -0.61239825       0.03721674      -0.01466246       0.00430249
Cu       2.08734920       2.55319368      17.36848337  T       2.00367895       0.33905578      -0.28023025       0.02669298      -0.00489557       0.00836298
Cu       2.08531368       5.10459783      17.37056807  T       0.71663074      -0.45362943       1.08149359       0.03617494       0.00432460       0.00424311
Cu       2.08322479       7.65793617      17.37375829  T      -0.65291298      -0.02817720       3.14048238       0.04302717       0.00482914      -0.01588261
Cu       8.33600292       0.00274227      17.37198527  T      -0.61594411       1.78598915       2.03215527       0.04274476      -0.01343641       0.00062183
Cu       8.33676199       2.55092828      17.36865423  T      -0.12469598      -1.12932474      -0.13811828       0.03596722       0.01431856       0.00104187
Cu       8.33468284       5.10470498      17.37159878  T      -1.46918367      -0.40309602       1.74687660       0.06442232      -0.00319763      -0.00742456
Cu       8.33595419       7.66066455      17.37122042  T      -0.61741083       1.73491457       1.51382247       0.04142880      -0.01448631       0.00084323
Cu      -0.00098398       1.27488442      16.62873423  T      -0.62365085      -0.91894471      -2.08701931       0.05323394       0.00279461       0.27865100
Cu       0.00183716       3.82881947      16.63351949  T       1.19712900      -0.10388357       0.99722981       0.02454673      -0.00140334       0.26802632
Cu      -0.00062267       6.38319486      16.63170027  T      -0.40731302       1.00518830      -0.16081086       0.04798891      -0.00950346       0.27029467
Cu      -0.00418080       8.93246207      16.63370943  T      -2.71529155      -1.18680558       1.12870104       0.06594199       0.00827167       0.26560012
Cu       6.25111201       1.27586432      16.62884539  T      -1.01966916      -0.30306445      -2.02440523       0.03811195      -0.00012148       0.27629718
Cu       6.25147055       3.82750978      16.62818710  T      -0.80365794      -0.94608774      -2.43395443       0.04357022       0.00481550       0.28203604
Cu       6.25592328       6.37889223      16.62872286  T       2.06501360      -1.77074368      -2.11193235       0.01783479       0.01871378       0.26965153
Cu       6.25205900       8.93455149      16.62924078  T      -0.40427206       0.16612330      -1.76181381       0.04104108      -0.00409101       0.28006330
Cu       4.16810666      -0.00461536      15.89538695  T      -0.21944952      -2.96784193       0.19567425       0.07582877       0.02847204       0.12116322
Cu       4.16656634       2.55310684      15.89533174  T      -1.23691654       0.28546726       0.15413290       0.08303096      -0.00224873       0.11394461
Cu       4.16946762       5.10871862      15.89401168  T       0.63676051       2.17361803      -0.69404157       0.07162165      -0.02143467       0.11282729
Cu       4.16659754       7.66150667      15.89536543  T      -1.20617403       2.30865665       0.17046186       0.07704476      -0.02267588       0.12109011
Cu      10.42123631      -0.00077775      15.89824925  T       0.05290166      -0.51743327       2.02231691       0.07521334      -0.00045747       0.10702738
Cu      10.42335528       2.54968778      15.89515014  T       1.41734236      -1.90795812       0.04606596       0.06446199       0.02344001       0.11697283
Cu      10.42414942       5.10593587      15.89368475  T       1.95461415       0.37121701      -0.90676763       0.05221196      -0.01000875       0.13386402
Cu      10.42041705       7.65985686      15.89842704  T      -0.49428068       1.22027798       2.16025162       0.07247024      -0.01757824       0.09274238
Cu       2.08662898       1.27639934      15.15712678  T       1.56855123       0.05486833      -0.70417969      -0.05009777       0.00386366      -0.03278006
Cu       2.08034703       3.83066807      15.16070737  T      -2.51115953       1.06797794       1.63049817      -0.01399853      -0.01325971      -0.05237492
Cu       2.08405325       6.37892733      15.15938908  T      -0.11533053      -1.73814309       0.74909676      -0.03358467       0.02332532      -0.03398674
Cu       2.08171522       8.93537175      15.15621243  T      -1.63560645       0.68128942      -1.27505543      -0.02906886      -0.01504894      -0.01310512
Cu       8.34026108       1.27369784      15.15963743  T       2.13244140      -1.70541257       0.91999249      -0.05385099       0.00912412      -0.04446985
Cu       8.33679303       3.82661204      15.15593587  T      -0.08243045      -1.53387154      -1.48451907      -0.02170582       0.01073625      -0.01421124
Cu       8.33544044       6.37994486      15.15956382  T      -0.96787647      -1.10061908       0.87360642      -0.02643113       0.00775610      -0.04145479
Cu       8.33655547       8.93354079      15.15975982  T      -0.22823598      -0.47221776       1.01937287      -0.03486408      -0.00096515      -0.04155736
Cu       0.00174684      -0.00328215      14.42141880  T       1.12487557      -2.13043322       0.04279986      -0.01874176       0.01687617      -0.03897579
Cu      -0.00196887       2.55121751      14.42215451  T      -1.27928249      -0.91631936       0.51038707       0.01151105       0.00382350      -0.04722265
Cu       0.00003581       5.10516260      14.42334364  T       0.04125302      -0.09650989       1.32302065      -0.00517943      -0.00127795      -0.05422771
Cu       0.00217932       7.65743427      14.42181380  T       1.42039545      -0.32858522       0.33569727      -0.02136936      -0.00464559      -0.04061913
Cu       6.25330551       0.00128223      14.42077242  T       0.38039213       0.85095128      -0.36617125      -0.00414652       0.00215764      -0.04145955
Cu       6.25338519       2.55434941      14.42388178  T       0.43756520       1.07956061       1.66987465      -0.00651289      -0.02090789      -0.06025787
Cu       6.25273252       5.10213599      14.41960759  T       0.03694461      -2.04107755      -1.12028605      -0.00270837       0.02650570      -0.03924707
Cu       6.24946113       7.66172859      14.42080525  T      -2.07689631       2.45415709      -0.33914935       0.01479276      -0.02792535      -0.03826585
Cu       4.16846894       1.27632774      13.68444082  F       0.00000000       0.00000000       0.00000000       0.00977410       0.00083619       0.04058419
Cu       4.16846894       3.82898322      13.68444082  F       0.00000000       0.00000000       0.00000000      -0.00575021      -0.00195919       0.04288329
Cu       4.16846894       6.38163870      13.68444082  F       0.00000000       0.00000000       0.00000000       0.00259940       0.00191209       0.03799687
Cu       4.16846894       8.93429418      13.68444082  F       0.00000000       0.00000000       0.00000000      -0.00275491       0.00409940       0.03184107
Cu      10.42117236       1.27632774      13.68444082  F       0.00000000       0.00000000       0.00000000       0.00716453      -0.00766774       0.03898261
Cu      10.42117236       3.82898322      13.68444082  F       0.00000000       0.00000000       0.00000000       0.00453691      -0.00043892       0.03795951
Cu      10.42117236       6.38163870      13.68444082  F       0.00000000       0.00000000       0.00000000       0.00292100       0.00549637       0.04490963
Cu      10.42117236       8.93429418      13.68444082  F       0.00000000       0.00000000       0.00000000       0.00347508      -0.00167642       0.04634636
Cu       2.08423447       0.00000000      12.94755266  F       0.00000000       0.00000000       0.00000000       0.03914876       0.00158615       0.02988325
Cu       2.08423447       2.55265548      12.94755266  F       0.00000000       0.00000000       0.00000000       0.03492274       0.00367569       0.04129556
Cu       2.08423447       5.10531096      12.94755266  F       0.00000000       0.00000000       0.00000000       0.03607716      -0.00128449       0.03854179
Cu       2.08423447       7.65796644      12.94755266  F       0.00000000       0.00000000       0.00000000       0.03935546      -0.00307112       0.03661390
Cu       8.33693789       0.00000000      12.94755266  F       0.00000000       0.00000000       0.00000000       0.03850625      -0.00171537       0.03759184
Cu       8.33693789       2.55265548      12.94755266  F       0.00000000       0.00000000       0.00000000       0.03580062      -0.00514355       0.03575466
Cu       8.33693789       5.10531096      12.94755266  F       0.00000000       0.00000000       0.00000000       0.03954445       0.00165360       0.03459783
Cu       8.33693789       7.65796644      12.94755266  F       0.00000000       0.00000000       0.00000000       0.03470995      -0.00121712       0.04321664
Cu      -0.00000000       1.27632774      12.21066449  F       0.00000000       0.00000000       0.00000000      -0.07766373      -0.00101574      -0.11615756
Cu      -0.00000000       3.82898322      12.21066449  F       0.00000000       0.00000000       0.00000000      -0.07723868       0.00015412      -0.11406357
Cu      -0.00000000       6.38163870      12.21066449  F       0.00000000       0.00000000       0.00000000      -0.07793117      -0.00162820      -0.11591068
Cu      -0.00000000       8.93429418      12.21066449  F       0.00000000       0.00000000       0.00000000      -0.07801914      -0.00183220      -0.11969140
Cu       6.25270342       1.27632774      12.21066449  F       0.00000000       0.00000000       0.00000000      -0.07773072       0.00338939      -0.11628030
Cu       6.25270342       3.82898322      12.21066449  F       0.00000000       0.00000000       0.00000000      -0.07751626      -0.00391109      -0.12169431
Cu       6.25270342       6.38163870      12.21066449  F       0.00000000       0.00000000       0.00000000      -0.07714106       0.00138225      -0.11629278
Cu       6.25270342       8.93429418      12.21066449  F       0.00000000       0.00000000       0.00000000      -0.07732590       0.00182459      -0.12221725
Cu       4.16846894       0.00000000      11.47377633  F       0.00000000       0.00000000       0.00000000      -0.03736967       0.00017585      -0.26439524
Cu       4.16846894       2.55265548      11.47377633  F       0.00000000       0.00000000       0.00000000      -0.03752857      -0.00006746      -0.26419720
Cu       4.16846894       5.10531096      11.47377633  F       0.00000000       0.00000000       0.00000000      -0.03748760      -0.00006075      -0.26395643
Cu       4.16846894       7.65796644      11.47377633  F       0.00000000       0.00000000       0.00000000      -0.03740513       0.00003178      -0.26408148
Cu      10.42117236       0.00000000      11.47377633  F       0.00000000       0.00000000       0.00000000      -0.03731287      -0.00014251      -0.26399088
Cu      10.42117236       2.55265548      11.47377633  F       0.00000000       0.00000000       0.00000000      -0.03727389      -0.00005630      -0.26409671
Cu      10.42117236       5.10531096      11.47377633  F       0.00000000       0.00000000       0.00000000      -0.03730964       0.00010341      -0.26425567
Cu      10.42117236       7.65796644      11.47377633  F       0.00000000       0.00000000       0.00000000      -0.03747342       0.00000731      -0.26375270
Cu       2.08423447       1.27632774      10.73688816  F       0.00000000       0.00000000       0.00000000      -0.04536520       0.00002150      -0.00603583
Cu       2.08423447       3.82898322      10.73688816  F       0.00000000       0.00000000       0.00000000      -0.04540147       0.00008447      -0.00572193
Cu       2.08423447       6.38163870      10.73688816  F       0.00000000       0.00000000       0.00000000      -0.04526817      -0.00003714      -0.00590019
Cu       2.08423447       8.93429418      10.73688816  F       0.00000000       0.00000000       0.00000000      -0.04512411      -0.00003406      -0.00629058
Cu       8.33693789       1.27632774      10.73688816  F       0.00000000       0.00000000       0.00000000      -0.04539911       0.00005707      -0.00591546
Cu       8.33693789       3.82898322      10.73688816  F       0.00000000       0.00000000       0.00000000      -0.04525208      -0.00012645      -0.00619017